# Hashes of file build rules.
6c9e19973086e2ca099a4c833bedf2a6 PVFoamReader_SM.xml
a5f2c0da0197d2a8216220d51870b27a PVFoamReader_SM_doc.h
13848fc8161dc856978699f1615ad493 doc/PVFoamReader_SM.qch
2a55abd4f9fdef7d7ab6a325e74fcbbb vtkPVFoamReaderClientServer.cxx
a7fa51ee94c1597352cbb0474afe4e9a vtkSMXML_PVFoamReader_SM.h
